TITLE     = "Circle"
VARIABLES = "X","Y", "Z", "R"
 Zone N = 3, E = 1, F=FEPOINT, ET = TRiangle
0.000000E+00   0.500000 -20 -0.148501E-22
0.500000E-01   0.500000       -20      -0.832378E-02
0.000000E+00   0.450000       -20       0.481601E-22
1 2 3
