TITLE     = "FE-Volume kurbel3f Brick Data, SFB393 (TU Chemnitz), Thu Dec 12 15:25:36 1996"
VARIABLES = "X","Y","Z","|u|"
ZONE N=3426, E=3424,F=FEPOINT, ET=Quadrilateral
 -4.000000000E+001 5.739999771E+000 1.385999966E+001 0.000000000E+000
 -4.000000000E+001 1.060999966E+001 1.060999966E+001 0.000000000E+000
 -3.477999878E+001 1.072000027E+001 1.025000000E+001 1.813999988E-004
 -3.488000107E+001 6.004000187E+000 1.364999962E+001 1.492000010E-004
 -4.000000000E+001 8.838999748E+000 8.838999748E+000 0.000000000E+000
 -4.000000000E+001 4.638000011E+000 1.101000023E+001 0.000000000E+000
 -4.000000000E+001 7.071000099E+000 7.071000099E+000 0.000000000E+000
 -4.000000000E+001 3.536000013E+000 8.168999672E+000 0.000000000E+000
 -4.000000000E+001 0.000000000E+000 9.267999649E+000 0.000000000E+000
 -4.000000000E+001 0.000000000E+000 1.213000011E+001 0.000000000E+000
 -4.000000000E+001 0.000000000E+000 1.500000000E+001 0.000000000E+000
 -3.500000000E+001 3.204999864E-001 1.500000000E+001 1.347999932E-004
 -2.978000069E+001 6.144000053E+000 1.351000023E+001 2.430000022E-004
 -2.960000038E+001 1.077999973E+001 9.989999771E+000 3.181000066E-004
 -3.000000000E+001 4.896000028E-001 1.500000000E+001 2.058999962E-004
 -4.000000000E+001 5.302999973E+000 5.302999973E+000 0.000000000E+000
 -4.000000000E+001 3.536000013E+000 3.536000013E+000 0.000000000E+000
 -4.000000000E+001 1.768000007E+000 3.536000013E+000 0.000000000E+000
 -4.000000000E+001 2.651999950E+000 5.852000237E+000 0.000000000E+000
 -4.000000000E+001 0.000000000E+000 3.536000013E+000 0.000000000E+000
 -4.000000000E+001 0.000000000E+000 6.401999950E+000 0.000000000E+000
 -4.000000000E+001 -1.768000007E+000 3.536000013E+000 0.000000000E+000
 -4.000000000E+001 -3.536000013E+000 3.536000013E+000 0.000000000E+000
 -4.000000000E+001 -5.302999973E+000 5.302999973E+000 0.000000000E+000
 -4.000000000E+001 -2.651999950E+000 5.852000237E+000 0.000000000E+000
 -4.000000000E+001 -7.071000099E+000 7.071000099E+000 0.000000000E+000
 -4.000000000E+001 -3.536000013E+000 8.168999672E+000 0.000000000E+000
 -4.000000000E+001 -1.060999966E+001 1.060999966E+001 0.000000000E+000
 -4.000000000E+001 -5.739999771E+000 1.385999966E+001 0.000000000E+000
 -3.511999893E+001 -5.477000237E+000 1.406000042E+001 1.489999995E-004
 -3.522000122E+001 -1.048999977E+001 1.096000004E+001 1.811999973E-004
 -4.000000000E+001 -8.838999748E+000 8.838999748E+000 0.000000000E+000
 -4.000000000E+001 -4.638000011E+000 1.101000023E+001 0.000000000E+000
 -3.039999962E+001 -1.043000031E+001 1.122000027E+001 3.175000020E-004
 -3.021999931E+001 -5.335999966E+000 1.421000004E+001 2.424999984E-004
 -1.961000061E+001 6.138000011E+000 1.325000000E+001 3.484000044E-004
 -1.928000069E+001 1.063000011E+001 9.501000404E+000 5.545999738E-004
 -2.443000031E+001 1.073999977E+001 9.741999626E+000 4.394999996E-004
 -2.469000053E+001 6.182000160E+000 1.336999989E+001 3.046999918E-004
 -2.000000000E+001 5.325000286E-001 1.500000000E+001 2.240000031E-004
 -2.500000000E+001 5.536000133E-001 1.500000000E+001 2.327999973E-004
 -2.071999931E+001 -1.057999992E+001 1.171000004E+001 5.529000191E-004
 -2.038999939E+001 -5.342000008E+000 1.447000027E+001 3.465999907E-004
 -2.530999947E+001 -5.297999859E+000 1.434000015E+001 3.037000133E-004
 -2.556999969E+001 -1.047000027E+001 1.147000027E+001 4.383999913E-004
 -4.000000000E+001 -1.385999966E+001 5.739999771E+000 0.000000000E+000
 -3.527999878E+001 -1.393000031E+001 6.140999794E+000 2.080999984E-004
 -4.000000000E+001 -1.101000023E+001 4.638000011E+000 0.000000000E+000
 -4.000000000E+001 -8.168999672E+000 3.536000013E+000 0.000000000E+000
 -4.000000000E+001 -9.267999649E+000 0.000000000E+000 0.000000000E+000
 -4.000000000E+001 -1.213000011E+001 0.000000000E+000 0.000000000E+000
 -4.000000000E+001 -1.500000000E+001 0.000000000E+000 0.000000000E+000
 -3.531000137E+001 -1.522999954E+001 3.587000072E-001 2.217000001E-004
 -3.053000069E+001 -1.398999977E+001 6.479000092E+000 3.853999951E-004
 -3.056999969E+001 -1.543999958E+001 7.182000279E-001 4.275999963E-004
 -4.000000000E+001 -3.536000013E+000 1.768000007E+000 0.000000000E+000
 -4.000000000E+001 -5.852000237E+000 2.651999950E+000 0.000000000E+000
 -4.000000000E+001 -3.536000013E+000 0.000000000E+000 0.000000000E+000
 -4.000000000E+001 -6.401999950E+000 0.000000000E+000 0.000000000E+000
 -4.000000000E+001 -3.536000013E+000 -1.768000007E+000 0.000000000E+000
 -4.000000000E+001 -3.536000013E+000 -3.536000013E+000 0.000000000E+000
 -4.000000000E+001 -5.302999973E+000 -5.302999973E+000 0.000000000E+000
 -4.000000000E+001 -5.852000237E+000 -2.651999950E+000 0.000000000E+000
 -4.000000000E+001 -7.071000099E+000 -7.071000099E+000 0.000000000E+000
 -4.000000000E+001 -8.168999672E+000 -3.536000013E+000 0.000000000E+000
 -4.000000000E+001 -1.060999966E+001 -1.060999966E+001 0.000000000E+000
 -4.000000000E+001 -1.385999966E+001 -5.739999771E+000 0.000000000E+000
 -3.527999878E+001 -1.419999981E+001 -5.478000164E+000 2.167000057E-004
 -3.522000122E+001 -1.100000000E+001 -1.044999981E+001 1.989000011E-004
 -4.000000000E+001 -8.838999748E+000 -8.838999748E+000 0.000000000E+000
 -4.000000000E+001 -1.101000023E+001 -4.638000011E+000 0.000000000E+000
 -3.039999962E+001 -1.144999981E+001 -1.021000004E+001 4.270999925E-004
 -3.052000046E+001 -1.453999996E+001 -5.151999950E+000 4.389999958E-004
 -2.094000053E+001 -1.435999966E+001 7.127999783E+000 7.349000080E-004
 -2.573999977E+001 -1.414000034E+001 6.806000233E+000 5.594000104E-004
 -2.101000023E+001 -1.607999992E+001 1.435999990E+000 8.671000251E-004
 -2.580999947E+001 -1.572000027E+001 1.077999949E+000 6.426000036E-004
 -2.071999931E+001 -1.260999966E+001 -9.678000450E+000 9.772999911E-004
 -2.094000053E+001 -1.546000004E+001 -4.473999977E+000 9.442999726E-004
 -2.573999977E+001 -1.497000027E+001 -4.815000057E+000 6.826000172E-004
 -2.556999969E+001 -1.198999977E+001 -9.946000099E+000 6.889000069E-004
 -4.000000000E+001 3.536000013E+000 1.768000007E+000 0.000000000E+000
 -4.000000000E+001 1.768000007E+000 1.768000007E+000 0.000000000E+000
 -4.000000000E+001 3.536000013E+000 0.000000000E+000 0.000000000E+000
 -4.000000000E+001 1.768000007E+000 0.000000000E+000 0.000000000E+000
 -4.000000000E+001 0.000000000E+000 0.000000000E+000 0.000000000E+000
 -4.000000000E+001 0.000000000E+000 1.768000007E+000 0.000000000E+000
 -4.000000000E+001 3.536000013E+000 -1.768000007E+000 0.000000000E+000
 -4.000000000E+001 3.536000013E+000 -3.536000013E+000 0.000000000E+000
 -4.000000000E+001 1.768000007E+000 -3.536000013E+000 0.000000000E+000
 -4.000000000E+001 1.768000007E+000 -1.768000007E+000 0.000000000E+000
 -4.000000000E+001 0.000000000E+000 -3.536000013E+000 0.000000000E+000
 -4.000000000E+001 0.000000000E+000 -1.768000007E+000 0.000000000E+000
 -4.000000000E+001 -1.768000007E+000 -3.536000013E+000 0.000000000E+000
 -4.000000000E+001 -1.768000007E+000 -1.768000007E+000 0.000000000E+000
 -4.000000000E+001 -1.768000007E+000 0.000000000E+000 0.000000000E+000
 -4.000000000E+001 -1.768000007E+000 1.768000007E+000 0.000000000E+000
 -4.000000000E+001 1.385999966E+001 -5.739999771E+000 0.000000000E+000
 -4.000000000E+001 1.060999966E+001 -1.060999966E+001 0.000000000E+000
 -3.477999878E+001 1.022000027E+001 -1.076000023E+001 1.985999988E-004
 -3.472000122E+001 1.352000046E+001 -6.001999855E+000 2.165000042E-004
 -4.000000000E+001 8.838999748E+000 -8.838999748E+000 0.000000000E+000
 -4.000000000E+001 1.101000023E+001 -4.638000011E+000 0.000000000E+000
 -4.000000000E+001 7.071000099E+000 -7.071000099E+000 0.000000000E+000
 -4.000000000E+001 8.168999672E+000 -3.536000013E+000 0.000000000E+000
 -4.000000000E+001 9.267999649E+000 0.000000000E+000 0.000000000E+000
 -4.000000000E+001 1.213000011E+001 0.000000000E+000 0.000000000E+000
 -4.000000000E+001 1.500000000E+001 0.000000000E+000 0.000000000E+000
 -3.468999863E+001 1.477000046E+001 -3.587000072E-001 2.215999993E-004
 -2.947999954E+001 1.317000008E+001 -6.328999996E+000 4.387999943E-004
 -2.960000038E+001 9.765000343E+000 -1.101000023E+001 4.267999902E-004
 -2.943000031E+001 1.456000042E+001 -7.188000083E-001 4.276999971E-004
 -4.000000000E+001 5.302999973E+000 -5.302999973E+000 0.000000000E+000
 -4.000000000E+001 5.852000237E+000 -2.651999950E+000 0.000000000E+000
 -4.000000000E+001 6.401999950E+000 0.000000000E+000 0.000000000E+000
 -4.000000000E+001 5.852000237E+000 2.651999950E+000 0.000000000E+000
 -4.000000000E+001 8.168999672E+000 3.536000013E+000 0.000000000E+000
 -4.000000000E+001 1.385999966E+001 5.739999771E+000 0.000000000E+000
 -3.472000122E+001 1.378999996E+001 5.340000153E+000 2.080999984E-004
 -4.000000000E+001 1.101000023E+001 4.638000011E+000 0.000000000E+000
 -2.946999931E+001 1.372000027E+001 5.000999928E+000 3.857999982E-004
 -1.906999969E+001 1.226000023E+001 -7.010000229E+000 9.444999741E-004
 -1.929000092E+001 8.600999832E+000 -1.153999996E+001 9.771999903E-004
 -2.443000031E+001 9.220999718E+000 -1.127000046E+001 6.887000054E-004
 -2.426000023E+001 1.275000000E+001 -6.666999817E+000 6.825000164E-004
 -1.898999977E+001 1.392000008E+001 -1.439000010E+000 8.676999714E-004
 -2.420000076E+001 1.427999973E+001 -1.078999996E+000 6.429000059E-004
 -1.905999947E+001 1.335999966E+001 4.348999977E+000 7.361000171E-004
 -2.426000023E+001 1.357999992E+001 4.671999931E+000 5.601000157E-004
 -4.000000000E+001 -5.739999771E+000 -1.385999966E+001 0.000000000E+000
 -3.511999893E+001 -6.139999866E+000 -1.378999996E+001 1.774999982E-004
 -4.000000000E+001 -4.638000011E+000 -1.101000023E+001 0.000000000E+000
 -4.000000000E+001 -3.536000013E+000 -8.168999672E+000 0.000000000E+000
 -4.000000000E+001 0.000000000E+000 -9.267999649E+000 0.000000000E+000
 -4.000000000E+001 0.000000000E+000 -1.213000011E+001 0.000000000E+000
 -4.000000000E+001 0.000000000E+000 -1.500000000E+001 0.000000000E+000
 -3.500000000E+001 -3.971999884E-001 -1.500000000E+001 1.671000064E-004
 -3.021999931E+001 -6.664000034E+000 -1.365999985E+001 4.078999918E-004
 -3.000000000E+001 -9.476000071E-001 -1.500000000E+001 3.985000076E-004
 -4.000000000E+001 -2.651999950E+000 -5.852000237E+000 0.000000000E+000
 -4.000000000E+001 0.000000000E+000 -6.401999950E+000 0.000000000E+000
 -4.000000000E+001 2.651999950E+000 -5.852000237E+000 0.000000000E+000
 -4.000000000E+001 3.536000013E+000 -8.168999672E+000 0.000000000E+000
 -4.000000000E+001 5.739999771E+000 -1.385999966E+001 0.000000000E+000
 -3.488000107E+001 5.341000080E+000 -1.393000031E+001 1.772999967E-004
 -4.000000000E+001 4.638000011E+000 -1.101000023E+001 0.000000000E+000
 -2.978000069E+001 4.816999912E+000 -1.406000042E+001 4.076999903E-004
 -2.038999939E+001 -7.995999813E+000 -1.336999989E+001 9.845000459E-004
 -2.530999947E+001 -7.290999889E+000 -1.352000046E+001 6.801999989E-004
 -2.000000000E+001 -2.339999914E+000 -1.500000000E+001 9.841000428E-004
 -2.500000000E+001 -1.603000045E+000 -1.500000000E+001 6.740000099E-004
 -1.962000084E+001 3.483999968E+000 -1.435000038E+001 9.844000451E-004
 -2.469000053E+001 4.190000057E+000 -1.419999981E+001 6.799999974E-004
 -1.415999985E+001 1.044999981E+001 9.260999680E+000 6.706999848E-004
 -1.453999996E+001 6.024000168E+000 1.311999989E+001 3.848999913E-004
 -1.500000000E+001 4.413000047E-001 1.500000000E+001 1.856000017E-004
 -9.491000175E+000 5.855000019E+000 1.298999977E+001 4.255000094E-004
 -9.060999870E+000 1.022000027E+001 9.022000313E+000 7.914999733E-004
 -9.998000145E+000 2.935999930E-001 1.500000000E+001 1.234999945E-004
 -1.544999981E+001 -5.455999851E+000 1.459000015E+001 3.823000006E-004
 -1.584000015E+001 -1.076000023E+001 1.194999981E+001 6.682000239E-004
 -1.093999958E+001 -1.098999977E+001 1.218000031E+001 7.882000064E-004
 -1.050000000E+001 -5.625000000E+000 1.472000027E+001 4.218000104E-004
 5.656999946E-001 5.408999920E+000 1.273999977E+001 5.450000172E-004
 1.047999978E+000 9.656000137E+000 8.536000252E+000 1.055000001E-003
 -3.990999937E+000 9.939000130E+000 8.793000221E+000 9.166999953E-004
 -4.453999996E+000 5.635000229E+000 1.286999989E+001 4.766999919E-004
 2.275000094E-003 -1.101000011E-001 1.498999977E+001 4.638999962E-005
 -4.998000145E+000 9.294000268E-002 1.500000000E+001 3.916000060E-005
 -1.044000030E+000 -1.156000042E+001 1.265999985E+001 1.049999963E-003
 -5.613999963E-001 -6.072000027E+000 1.496000004E+001 5.396999768E-004
 -5.540999889E+000 -5.844999790E+000 1.484000015E+001 4.720999859E-004
 -6.005000114E+000 -1.127000046E+001 1.240999985E+001 9.126000223E-004
 -1.610000038E+001 -1.464000034E+001 7.448999882E+000 9.157999884E-004
 -1.619000053E+001 -1.648999977E+001 1.796000004E+000 1.102000009E-003
 -1.122999954E+001 -1.497999954E+001 7.769999981E+000 1.103000017E-003
 -1.132999992E+001 -1.695999908E+001 2.158999920E+000 1.348000020E-003
 -1.610000038E+001 -1.602000046E+001 -4.131000042E+000 1.222999999E-003
 -1.584000015E+001 -1.330000019E+001 -9.409000397E+000 1.288000029E-003
 -1.093999958E+001 -1.403999996E+001 -9.133000374E+000 1.619999995E-003
 -1.122999954E+001 -1.662999916E+001 -3.782999992E+000 1.517000026E-003
 -1.376000047E+000 -1.575000000E+001 8.442999840E+000 1.503000036E-003
 -6.320000172E+000 -1.535999966E+001 8.085000038E+000 1.294999965E-003
 -1.508000016E+000 -1.800000000E+001 2.951999903E+000 1.879999996E-003
 -6.435999870E+000 -1.746999931E+001 2.517999887E+000 1.600999967E-003
 -1.105999947E+000 -1.568999958E+001 -8.475000381E+000 2.366000088E-003
 -1.414999962E+000 -1.797999954E+001 -2.987999916E+000 2.167999977E-003
 -6.334000111E+000 -1.728000069E+001 -3.431999922E+000 1.823000028E-003
 -6.025000095E+000 -1.481999969E+001 -8.854999542E+000 1.965000061E-003
 -1.415999985E+001 7.916999817E+000 -1.181000042E+001 1.288000029E-003
 -1.389999962E+001 1.169999981E+001 -7.354000092E+000 1.224000007E-003
 -1.381000042E+001 1.351000023E+001 -1.799999952E+000 1.103000017E-003
 -8.772000313E+000 1.109000015E+001 -7.703999996E+000 1.518000034E-003
 -9.062000275E+000 7.177000046E+000 -1.209000015E+001 1.619999995E-003
 -8.670999527E+000 1.303999996E+001 -2.165999889E+000 1.350000035E-003
 -1.389999962E+001 1.306999969E+001 4.026999950E+000 9.176000021E-004
 -8.772000313E+000 1.273999977E+001 3.703000069E+000 1.106000040E-003
 1.414000034E+000 9.737999916E+000 -8.505999565E+000 2.169999992E-003
 1.100999951E+000 5.521999836E+000 -1.275000000E+001 2.367000096E-003
 -3.980999947E+000 6.399000168E+000 -1.236999989E+001 1.966000069E-003
 -3.668999910E+000 1.043999958E+001 -8.057999611E+000 1.825000043E-003
 1.508999944E+000 1.200000000E+001 -2.966000080E+000 1.884000027E-003
 -3.563999891E+000 1.252999973E+001 -2.528000116E+000 1.603999990E-003
 1.378000021E+000 1.197000027E+001 3.023999929E+000 1.506999950E-003
 -3.677999973E+000 1.235999966E+001 3.385999918E+000 1.298999996E-003
 -1.546000004E+001 -8.770000458E+000 -1.322000027E+001 1.316000009E-003
 -1.500000000E+001 -3.145999908E+000 -1.500000000E+001 1.322999946E-003
 -1.051000023E+001 -9.600999832E+000 -1.306999969E+001 1.671000035E-003
 -1.000000000E+001 -4.008999825E+000 -1.500000000E+001 1.686000032E-003
 -1.455000019E+001 2.710000038E+000 -1.450000000E+001 1.316000009E-003
 -9.494000435E+000 1.881000042E+000 -1.464999962E+001 1.671000035E-003
 -6.104000211E-001 -1.147000027E+001 -1.269999981E+001 2.470999956E-003
 -5.558000088E+000 -1.047000027E+001 -1.290999985E+001 2.042999957E-003
 -6.988999899E-003 -5.951000214E+000 -1.500000000E+001 2.502999967E-003
 -5.005000114E+000 -4.914999962E+000 -1.500000000E+001 2.066999907E-003
 5.996000171E-001 1.398999989E-002 -1.502000046E+001 2.470999956E-003
 -4.449999809E+000 1.008000016E+000 -1.481000042E+001 2.042999957E-003
 1.154999971E+000 1.410000038E+001 2.535000038E+001 1.561000012E-003
 2.145999908E+000 2.253000069E+001 1.681999969E+001 2.127999905E-003
 4.643000126E+000 2.227000046E+001 1.682999992E+001 2.100999933E-003
 3.653000116E+000 1.385000038E+001 2.535000038E+001 1.488000038E-003
 1.878000021E+000 1.932999992E+001 1.472999954E+001 1.825000043E-003
 9.771000147E-001 1.146000004E+001 2.145999908E+001 1.187999966E-003
 1.606999993E+000 1.612999916E+001 1.264000034E+001 1.536000054E-003
 7.975999713E-001 8.812000275E+000 1.757999992E+001 8.414000040E-004
 3.155000042E-003 1.526000023E+000 2.248999977E+001 6.416999968E-004
 3.581000026E-003 2.302999973E+000 2.623999977E+001 9.685999830E-004
 4.000000190E-003 3.072999954E+000 2.998999977E+001 1.292999950E-003
 2.503999949E+000 2.823999882E+000 2.998999977E+001 1.187999966E-003
 6.151999950E+000 1.360000038E+001 2.535000038E+001 1.418999978E-003
 7.140999794E+000 2.201000023E+001 1.682999992E+001 2.078999998E-003
 5.004000187E+000 2.573999882E+000 2.998999977E+001 1.082999981E-003
 1.332999945E+000 1.292000008E+001 1.056000042E+001 1.275000046E-003
 6.834999919E-001 7.133999825E+000 1.514999962E+001 6.588000106E-004
 2.700000070E-003 7.401000261E-001 1.873999977E+001 3.113000130E-004
 -1.327999949E+000 -1.360000038E+001 1.594999981E+001 1.269000000E-003
 -6.784999967E-001 -6.560999870E+000 1.789999962E+001 6.530000246E-004
 -1.600999951E+000 -1.569999981E+001 1.917000008E+001 1.530000009E-003
 -7.918999791E-001 -7.098000050E+000 2.080999947E+001 8.358000196E-004
 -2.138000011E+000 -1.989999962E+001 2.559000015E+001 2.121000085E-003
 -1.146999955E+000 -8.861000061E+000 3.006999969E+001 1.555999974E-003
 1.355000019E+000 -9.112999916E+000 3.005999947E+001 1.483000000E-003
 3.644999862E-001 -2.015999985E+001 2.557999992E+001 2.094000112E-003
 -1.871000051E+000 -1.779999924E+001 2.237999916E+001 1.817999990E-003
 -9.703000188E-001 -7.973999977E+000 2.544000053E+001 1.183000044E-003
 2.867000103E+000 -2.040999985E+001 2.557999992E+001 2.071999945E-003
 3.855999947E+000 -9.364999771E+000 3.005999947E+001 1.414000057E-003
 1.114999962E+001 1.309000015E+001 2.535000038E+001 1.296999981E-003
 1.214000034E+001 2.150000000E+001 1.684000015E+001 2.052000025E-003
 9.638999939E+000 2.176000023E+001 1.682999992E+001 2.063000109E-003
 8.651000023E+000 1.335000038E+001 2.535000038E+001 1.354999957E-003
 1.186999989E+001 1.829999924E+001 1.473999977E+001 1.794000040E-003
 1.097000027E+001 1.046000004E+001 2.145999908E+001 9.850000497E-004
 1.160000038E+001 1.510000038E+001 1.264000034E+001 1.569999964E-003
 1.080000019E+001 7.813000202E+000 1.756999969E+001 7.657000097E-004
 1.000000000E+001 5.325000286E-001 2.248999977E+001 2.240000031E-004
 1.000000000E+001 1.304999948E+000 2.623999977E+001 5.489999894E-004
 1.000000000E+001 2.075000048E+000 2.998999977E+001 8.726000087E-004
 7.504000187E+000 2.323999882E+000 2.998999977E+001 9.774999926E-004
 1.132999992E+001 1.189999962E+001 1.053999996E+001 1.395000028E-003
 1.106000042E+001 8.699999809E+000 8.444999695E+000 1.291000051E-003
 1.056999969E+001 4.494999886E+000 1.268999958E+001 7.576000062E-004
 1.068000031E+001 6.151999950E+000 1.513000011E+001 7.174999919E-004
 1.000000000E+001 -1.014000058E+000 1.498999977E+001 4.262999864E-004
 1.000000000E+001 -2.416999936E-001 1.873999977E+001 1.017000031E-004
 9.434000015E+000 -6.985000134E+000 1.501000023E+001 7.527000271E-004
 8.946999550E+000 -1.251000023E+001 1.275000000E+001 1.286000013E-003
 8.675000191E+000 -1.461999989E+001 1.596000004E+001 1.387999975E-003
 9.321999550E+000 -7.543000221E+000 1.792000008E+001 7.112000021E-004
 8.404999733E+000 -1.671999931E+001 1.917000008E+001 1.562000019E-003
 9.210000038E+000 -8.097000122E+000 2.081999969E+001 7.587000146E-004
 7.870999813E+000 -2.092000008E+001 2.556999969E+001 2.044999972E-003
 8.857999802E+000 -9.866999626E+000 3.005999947E+001 1.290000044E-003
 6.356999874E+000 -9.616000175E+000 3.005999947E+001 1.349000027E-003
 5.368999958E+000 -2.067000008E+001 2.557999992E+001 2.055000048E-003
 8.137000084E+000 -1.881999969E+001 2.237000084E+001 1.786999987E-003
 9.032999992E+000 -8.979999542E+000 2.544000053E+001 9.780999972E-004
 -2.673000097E+000 -2.622999954E+001 2.005999947E+001 2.552000107E-003
 -1.688999981E-001 -2.648999977E+001 2.004999924E+001 2.551000100E-003
 -2.305000067E+000 -2.313999939E+001 1.684000015E+001 2.210000064E-003
 -1.932000041E+000 -2.004999924E+001 1.360000038E+001 1.888999948E-003
 -2.289999962E+000 -2.440999985E+001 8.076999664E+000 2.377999946E-003
 -2.661999941E+000 -2.761000061E+001 1.056000042E+001 2.657999983E-003
 -3.029000044E+000 -3.080999947E+001 1.302999973E+001 2.953999909E-003
 -5.242999792E-001 -3.107999992E+001 1.302000046E+001 2.975000069E-003
 2.335000038E+000 -2.675000000E+001 2.004999924E+001 2.554999897E-003
 1.980000019E+000 -3.134000015E+001 1.300000000E+001 3.001000034E-003
 -1.661000013E+000 -1.787999916E+001 1.106000042E+001 1.687000040E-003
 -1.911000013E+000 -2.120999908E+001 5.573999882E+000 2.125000115E-003
 -1.639000058E+000 -2.023999977E+001 -7.091000080E+000 2.652999945E-003
 -1.822000027E+000 -2.128000069E+001 -8.822000027E-001 2.380999969E-003
 -2.145999908E+000 -2.468000031E+001 -5.810999870E+000 2.942000050E-003
 -2.203000069E+000 -2.453000069E+001 1.118999958E+000 2.594999969E-003
 -3.141000032E+000 -3.352999878E+001 -3.322000027E+000 3.599999938E-003
 -3.190999985E+000 -3.331000137E+001 5.039000034E+000 3.308000043E-003
 -6.840999722E-001 -3.358000183E+001 5.011000156E+000 3.348000115E-003
 -6.330000162E-001 -3.381999969E+001 -3.358999968E+000 3.658999922E-003
 -2.648000002E+000 -2.911000061E+001 -4.551000118E+000 3.262999933E-003
 -2.701999903E+000 -2.892000008E+001 3.092999935E+000 2.942000050E-003
 1.875000000E+000 -3.409999847E+001 -3.391000032E+000 3.721999936E-003
 1.822000027E+000 -3.384999847E+001 4.986999989E+000 3.392999992E-003
 7.340000153E+000 -2.727000046E+001 2.003000069E+001 2.577000065E-003
 4.837999821E+000 -2.701000023E+001 2.004000092E+001 2.563999966E-003
 7.706999779E+000 -2.418000031E+001 1.680999947E+001 2.283999929E-003
 8.076999664E+000 -2.110000038E+001 1.357999992E+001 2.031000098E-003
 7.723000050E+000 -2.548999977E+001 8.024000168E+000 2.579000080E-003
 7.353000164E+000 -2.868000031E+001 1.050000000E+001 2.806999953E-003
 6.986999989E+000 -3.187000084E+001 1.297000027E+001 3.064000048E-003
 4.484000206E+000 -3.161000061E+001 1.298999977E+001 3.031000029E-003
 8.611000061E+000 -1.676000023E+001 8.555000305E+000 1.797999954E-003
 8.343000412E+000 -1.893000031E+001 1.106999969E+001 1.893999986E-003
 8.475000381E+000 -1.909000015E+001 3.062000036E+000 2.243000083E-003
 8.097999573E+000 -2.229999924E+001 5.543000221E+000 2.387000015E-003
 8.560999870E+000 -1.914999962E+001 -2.898000002E+000 2.598999999E-003
 8.871000290E+000 -1.694000053E+001 -8.421999931E+000 2.856000094E-003
 8.375000000E+000 -2.137999916E+001 -7.183000088E+000 3.041000105E-003
 8.187999725E+000 -2.239999962E+001 -9.341999888E-001 2.715999959E-003
 7.875999928E+000 -2.580999947E+001 -5.934999943E+000 3.277000040E-003
 7.813000202E+000 -2.562999916E+001 1.034000039E+000 2.873999998E-003
 6.890999794E+000 -3.463999939E+001 -3.453999996E+000 3.854000010E-003
 6.830999851E+000 -3.440000153E+001 4.942999840E+000 3.492000047E-003
 4.327000141E+000 -3.413000107E+001 4.966000080E+000 3.440999892E-003
 4.382999897E+000 -3.436999893E+001 -3.421000004E+000 3.787999973E-003
 7.381000042E+000 -3.022999954E+001 -4.689000130E+000 3.551000031E-003
 7.318999767E+000 -3.002000046E+001 2.993000031E+000 3.165999893E-003
 1.088000011E+001 6.572999954E+000 7.045000076E+000 1.270000008E-003
 1.046000004E+001 2.812999964E+000 1.006999969E+001 8.848999860E-004
 1.069999981E+001 4.449999809E+000 5.640999794E+000 1.290000044E-003
 1.035000038E+001 1.138000011E+000 7.453000069E+000 1.062999945E-003
 1.000000000E+001 -2.176000118E+000 9.260000229E+000 9.152999846E-004
 1.000000000E+001 -1.598000050E+000 1.213000011E+001 6.719999947E-004
 1.052000046E+001 2.329999924E+000 4.234000206E+000 1.347000012E-003
 1.034000015E+001 2.123000026E-001 2.822000027E+000 1.436999999E-003
 1.017000008E+001 -1.552999973E+000 3.176000118E+000 1.407000003E-003
 1.026000023E+001 -2.082999945E-001 5.315000057E+000 1.229000045E-003
 1.000000000E+001 -3.319999933E+000 3.528000116E+000 1.396000036E-003
 1.000000000E+001 -2.749000072E+000 6.394000053E+000 1.155999955E-003
 9.828000069E+000 -5.087999821E+000 3.878999949E+000 1.405999996E-003
 9.654999733E+000 -6.857999802E+000 4.232999802E+000 1.434999984E-003
 9.482000351E+000 -8.276000023E+000 6.356999874E+000 1.343999989E-003
 9.741999626E+000 -5.511000156E+000 6.374000072E+000 1.227000030E-003
 9.305000305E+000 -9.692000389E+000 8.484999657E+000 1.286000013E-003
 9.654999733E+000 -5.933000088E+000 8.869999886E+000 1.060000039E-003
 9.126999855E+000 -1.110000038E+001 1.061999989E+001 1.264999970E-003
 9.545000076E+000 -6.461999893E+000 1.193999958E+001 8.816000191E-004
 3.204999924E+000 2.662999916E+001 -7.714000225E+000 3.317000112E-003
 3.158999920E+000 2.338999939E+001 -1.561999989E+001 3.609000007E-003
 5.651000023E+000 2.312000084E+001 -1.559000015E+001 3.667999990E-003
 5.697999954E+000 2.636000061E+001 -7.688000202E+000 3.356999950E-003
 2.661000013E+000 1.887999916E+001 -1.496000004E+001 3.269999987E-003
 2.713000059E+000 2.187000084E+001 -7.730000019E+000 2.950000111E-003
 2.154000044E+000 1.439000034E+001 -1.427999973E+001 2.947000088E-003
 2.210000038E+000 1.711000061E+001 -7.717000008E+000 2.601000015E-003
 2.296999931E+000 1.978000069E+001 -1.187000036E+000 2.385000000E-003
 2.671000004E+000 2.368000031E+001 -2.203000039E-001 2.665000036E-003
 3.039999962E+000 2.757999992E+001 7.609999776E-001 2.962999977E-003
 5.534999847E+000 2.730999947E+001 7.761999965E-001 2.983999904E-003
 8.192000389E+000 2.609000015E+001 -7.664999962E+000 3.402000060E-003
 8.142999649E+000 2.284000015E+001 -1.556000042E+001 3.731000004E-003
 8.031000137E+000 2.704000092E+001 7.896999717E-001 3.010000102E-003
 1.639999986E+000 9.909000397E+000 -1.356000042E+001 2.654999960E-003
 1.825999975E+000 1.339999962E+001 -8.163999557E+000 2.385000000E-003
 1.916000009E+000 1.589000034E+001 -2.135999918E+000 2.130999928E-003
 1.666000009E+000 1.497999954E+001 4.346000195E+000 1.692999969E-003
 1.937000036E+000 1.795999908E+001 5.747000217E+000 1.896000002E-003
 2.681999922E+000 2.617000008E+001 9.151000023E+000 2.559999935E-003
 5.177000046E+000 2.590999985E+001 9.159000397E+000 2.558999928E-003
 2.312000036E+000 2.206999969E+001 7.440999985E+000 2.216999885E-003
 7.673999786E+000 2.564999962E+001 9.166999817E+000 2.562999958E-003
 1.318000031E+001 2.554000092E+001 -7.614999771E+000 3.501000116E-003
 1.313000011E+001 2.227000046E+001 -1.547999954E+001 3.864000086E-003
 1.063000011E+001 2.255999947E+001 -1.552000046E+001 3.797000041E-003
 1.068999958E+001 2.580999947E+001 -7.642000198E+000 3.449999960E-003
 1.263000011E+001 1.775000000E+001 -1.481999969E+001 3.560000099E-003
 1.268999958E+001 2.076000023E+001 -7.625999928E+000 3.173999954E-003
 1.213000011E+001 1.325000000E+001 -1.414999962E+001 3.285000101E-003
 1.218999958E+001 1.598999977E+001 -7.631000042E+000 2.881000051E-003
 1.227999973E+001 1.870000076E+001 -1.133999944E+000 2.585999900E-003
 1.265999985E+001 2.260000038E+001 -1.571000069E-001 2.815000014E-003
 1.302000046E+001 2.651000023E+001 8.224999905E-001 3.072000109E-003
 1.052999973E+001 2.678000069E+001 8.055999875E-001 3.039000090E-003
 1.163000011E+001 8.751999855E+000 -1.347000027E+001 3.047999926E-003
 1.113000011E+001 4.269999981E+000 -1.281000042E+001 2.860999899E-003
 1.143999958E+001 8.557000160E+000 -8.598999977E+000 2.604000038E-003
 1.181999969E+001 1.227000046E+001 -8.112000465E+000 2.723000012E-003
 1.152999973E+001 1.089999962E+001 -3.078000069E+000 2.247999888E-003
 1.190999985E+001 1.480000019E+001 -2.105999947E+000 2.394000068E-003
 1.139000034E+001 1.094999981E+001 2.908999920E+000 1.804000000E-003
 1.165999985E+001 1.393000031E+001 4.336999893E+000 1.900000032E-003
 1.193000031E+001 1.690999985E+001 5.763000011E+000 2.037999919E-003
 1.267000008E+001 2.512999916E+001 9.184000015E+000 2.584999893E-003
 1.017000008E+001 2.538999939E+001 9.175000191E+000 2.572000027E-003
 1.230000019E+001 2.102000046E+001 7.471000195E+000 2.290999983E-003
 8.906000137E+000 -1.413000011E+001 6.857999802E+000 1.674999949E-003
 9.196000099E+000 -1.150000000E+001 5.169000149E+000 1.597999944E-003
 9.079000473E+000 -1.332999992E+001 1.860000014E+000 1.917000045E-003
 8.781000137E+000 -1.620999908E+001 2.456000090E+000 2.065999899E-003
 9.654999733E+000 -7.210999966E+000 2.463999987E+000 1.580000040E-003
 9.427000046E+000 -9.357000351E+000 3.813999891E+000 1.571999979E-003
 9.654000282E+000 -7.565999985E+000 6.966000199E-001 1.725999988E-003
 9.369999886E+000 -1.043999958E+001 1.274000049E+000 1.801999984E-003
 9.652000427E+000 -7.925000191E+000 -1.070000052E+000 1.874999958E-003
 9.649000168E+000 -8.289999962E+000 -2.835000038E+000 2.026000060E-003
 9.467000008E+000 -1.043999958E+001 -4.243000031E+000 2.215000102E-003
 9.420000076E+000 -1.043000031E+001 -1.485999942E+000 2.002999885E-003
 9.277999878E+000 -1.259000015E+001 -5.644000053E+000 2.418000018E-003
 9.180999756E+000 -1.294999981E+001 -1.894999981E+000 2.153000096E-003
 9.079000473E+000 -1.476000023E+001 -7.035999775E+000 2.632000018E-003
 8.878000259E+000 -1.604999924E+001 -2.401999950E+000 2.365000080E-003
 1.034000015E+001 -1.407999992E-001 1.054999948E+000 1.582000055E-003
 1.017000008E+001 -1.904999971E+000 1.407999992E+000 1.553999959E-003
 1.034000015E+001 -4.959999919E-001 -7.128000259E-001 1.728000003E-003
 1.017000008E+001 -2.259999990E+000 -3.600000143E-001 1.702000038E-003
 9.998999596E+000 -4.026000023E+000 -8.104999550E-003 1.692999969E-003
 1.000000000E+001 -3.671999931E+000 1.759999990E+000 1.543999999E-003
 1.035000038E+001 -8.546000123E-001 -2.482000113E+000 1.875999966E-003
 1.035000038E+001 -1.220000029E+000 -4.251999855E+000 2.028000075E-003
 1.017000008E+001 -2.980999947E+000 -3.897000074E+000 2.003999893E-003
 1.017000008E+001 -2.618000031E+000 -2.128000021E+000 1.852000016E-003
 9.998000145E+000 -4.745999813E+000 -3.543999910E+000 1.996000065E-003
 9.998999596E+000 -4.383999825E+000 -1.776000023E+000 1.843999955E-003
 9.824000359E+000 -6.515999794E+000 -3.190000057E+000 2.002999885E-003
 9.826000214E+000 -6.152999878E+000 -1.424000025E+000 1.851000008E-003