TITLE     = "Circle"
VARIABLES = "X","Y", "Z", "R"
 Zone N = 3, E = 1, F=FEPOINT, ET = TRiangle
0.000000E+00   0.500000 -20 0
0.500000E-01   0.500000       -20      10
0.000000E+00   0.450000       -20      9
1 2 3
